# vtk DataFile Version 3.0
Surface mesh created with Palabos
ASCII
DATASET UNSTRUCTURED_GRID
POINTS 130 double
2.2499925000e+00 -2.5000750000e-01 5.0001060660e-01
2.5000000001e+00 1.9091306314e-10 5.0001500000e-01
1.9999948286e+00 -8.8276129702e-06 5.0001096950e-01
2.7500075001e+00 -2.5000750018e-01 5.0001060640e-01
2.5000043300e+00 -5.0001299056e-01 5.0000612343e-01
2.9999976857e+00 -6.9432017632e-06 5.0001309335e-01
1.9999974144e+00 -9.8985561473e-06 -1.0969659333e-05
2.2499925002e+00 -2.5000750008e-01 -1.0606681209e-05
2.4999956703e+00 -5.0001299046e-01 -6.1238380856e-06
2.7500075001e+00 -2.5000749977e-01 -1.0606676658e-05
3.0000023147e+00 -6.9434154547e-06 -1.3093177339e-05
9.2499925000e+00 -2.5000750000e-01 5.0001060660e-01
9.5000000001e+00 1.9091306314e-10 5.0001500000e-01
8.9999999998e+00 -8.6601155408e-06 5.0001224755e-01
9.7500075001e+00 -2.5000750018e-01 5.0001060640e-01
9.5000043300e+00 -5.0001299056e-01 5.0000612343e-01
1.0000002586e+01 -9.8983771633e-06 5.0001096975e-01
9.0000000000e+00 -4.9999731278e-06 -1.4142146217e-05
9.2499925002e+00 -2.5000750003e-01 -1.0606686572e-05
9.4999956703e+00 -5.0001299046e-01 -6.1238380857e-06
9.7500075001e+00 -2.5000749977e-01 -1.0606676658e-05
1.0000005171e+01 -8.8274141958e-06 -1.0969746311e-05
8.4999999999e+00 1.6226486821e-10 5.0001500000e-01
7.9999976853e+00 -6.9438686500e-06 5.0001309293e-01
8.2499925001e+00 -2.5000750035e-01 5.0001060645e-01
8.7500075000e+00 -2.5000750031e-01 5.0001060640e-01
8.5000000000e+00 -5.0001224769e-01 5.0000865991e-01
8.0000023145e+00 -6.9436436029e-06 -1.3093083821e-05
8.2499925001e+00 -2.5000750003e-01 -1.0606688996e-05
8.5000000002e+00 -5.0001414208e-01 -5.0001696773e-06
8.7500075000e+00 -2.5000749987e-01 -1.0606658540e-05
7.2499925000e+00 -2.5000750000e-01 5.0001060660e-01
7.4999999999e+00 1.1235401498e-10 5.0001500000e-01
6.9999980633e+00 -5.8092668473e-06 5.0001369312e-01
7.7500074999e+00 -2.5000750033e-01 5.0001060641e-01
7.5000043300e+00 -5.0001299056e-01 5.0000612343e-01
7.0000019365e+00 -5.8094729957e-06 -1.3693068815e-05
7.2499925001e+00 -2.5000750002e-01 -1.0606687104e-05
7.4999956703e+00 -5.0001299046e-01 -6.1238380857e-06
7.7500075000e+00 -2.5000749991e-01 -1.0606676658e-05
6.2499925000e+00 -2.5000750000e-01 5.0001060660e-01
6.4999999999e+00 -1.9113999272e-10 5.0001500000e-01
5.9999999997e+00 -5.0000501863e-06 5.0001414212e-01
6.7500075000e+00 -2.5000750032e-01 5.0001060641e-01
6.5000000000e+00 -5.0001414225e-01 5.0000499968e-01
5.9999999999e+00 -8.6601891678e-06 -1.2247495845e-05
6.2499925002e+00 -2.5000750006e-01 -1.0606712776e-05
6.5000000004e+00 -5.0001224741e-01 -8.6603123467e-06
6.7500075000e+00 -2.5000749989e-01 -1.0606672427e-05
5.2499925000e+00 -2.5000750000e-01 5.0001060660e-01
5.4999999999e+00 1.3575796043e-10 5.0001500000e-01
4.9999976852e+00 -6.9433924452e-06 5.0001309316e-01
5.7500074999e+00 -2.5000750034e-01 5.0001060641e-01
5.5000043300e+00 -5.0001299056e-01 5.0000612343e-01
5.0000023145e+00 -6.9436436022e-06 -1.3093083821e-05
5.2499925001e+00 -2.5000750003e-01 -1.0606688994e-05
5.4999956703e+00 -5.0001299046e-01 -6.1238380857e-06
5.7500075000e+00 -2.5000749990e-01 -1.0606676658e-05
4.2499925000e+00 -2.5000750000e-01 5.0001060660e-01
4.4999999999e+00 4.5406511884e-10 5.0001500000e-01
3.9999999998e+00 -7.3850703118e-06 5.0001305606e-01
4.7500074999e+00 -2.5000750033e-01 5.0001060641e-01
4.5000043300e+00 -5.0001299056e-01 5.0000612343e-01
4.0000000000e+00 -4.0824673853e-06 -1.4433762158e-05
4.2499925001e+00 -2.5000750003e-01 -1.0606685678e-05
4.4999956703e+00 -5.0001299046e-01 -6.1238380857e-06
4.7500075000e+00 -2.5000749991e-01 -1.0606676658e-05
3.5000000000e+00 -5.0001224745e-01 5.0000866025e-01
3.7500075000e+00 -2.5000750000e-01 5.0001060662e-01
3.2499924999e+00 -2.5000749997e-01 5.0001060656e-01
3.5000000000e+00 2.2637480779e-10 5.0001500000e-01
3.2499925001e+00 -2.5000750003e-01 -1.0606688993e-05
3.5000000002e+00 -5.0001414208e-01 -5.0001696712e-06
3.7500075001e+00 -2.5000749986e-01 -1.0606657645e-05
1.7625000477e+00 2.5000000043e-01 5.0001500000e-01
1.3636363745e+00 5.0001248091e-01 5.0000832027e-01
-8.6603341568e-06 5.0000866031e-01 5.0000866012e-01
9.9999999988e-01 -1.2480861916e-05 5.0000832034e-01
-8.6603406526e-06 -8.6603809002e-06 5.0000866004e-01
2.7272727490e+00 5.0000832074e-01 5.0001248060e-01
5.5875000954e+00 2.5000000062e-01 5.0001500000e-01
4.0909090043e+00 5.0001248101e-01 5.0000832012e-01
5.4545454980e+00 5.0001200017e-01 5.0000899977e-01
7.5000000000e+00 2.5000000052e-01 5.0001500000e-01
6.8181819916e+00 5.0001248093e-01 5.0000832024e-01
8.1818180085e+00 5.0001060675e-01 5.0001060646e-01
9.4125003815e+00 2.5000000041e-01 5.0001500000e-01
9.5454549790e+00 5.0000832082e-01 5.0001248054e-01
1.1324999809e+01 2.5000000004e-01 5.0001500000e-01
1.0909090996e+01 5.0001248096e-01 5.0000832020e-01
1.3237500191e+01 2.5000000002e-01 5.0001500000e-01
1.3636363983e+01 5.0001248091e-01 5.0000832027e-01
1.2272727013e+01 5.0001060688e-01 5.0001060632e-01
1.5000008660e+01 5.0000866031e-01 5.0000866012e-01
1.5000010000e+01 -5.0004335980e-06 5.0000999983e-01
1.1250000000e+01 -1.0606806620e-05 5.0001060640e-01
1.2500000000e+01 -1.0606850121e-05 5.0001060635e-01
1.3750000000e+01 -1.2480926785e-05 5.0000832025e-01
-9.9999422645e-06 -4.9998849930e-06 -1.0000116389e-05
9.9999999996e-01 -1.2480641550e-05 -8.3206740407e-06
1.1250000000e+01 -1.0606409641e-05 -1.0606795247e-05
1.2500000000e+01 -1.0606456925e-05 -1.0606747923e-05
1.5000008660e+01 -8.6601090650e-06 -8.6604336541e-06
1.3750000000e+01 -1.2480655302e-05 -8.3206534138e-06
1.3636363983e+01 5.0001248063e-01 -8.3206971684e-06
1.5000010000e+01 5.0000499985e-01 -1.0000049144e-05
1.2272727013e+01 5.0001060649e-01 -1.0606719051e-05
9.5454549789e+00 5.0001199989e-01 -9.0001531564e-06
1.0909090996e+01 5.0001248066e-01 -8.3206510492e-06
8.1818180084e+00 5.0001060643e-01 -1.0606778981e-05
6.8181819915e+00 5.0001248059e-01 -8.3207571379e-06
5.4545454978e+00 5.0000832027e-01 -1.2480912541e-05
4.0909090041e+00 5.0001248058e-01 -8.3207736797e-06
2.7272727489e+00 5.0001199984e-01 -9.0002129426e-06
1.3636363744e+00 5.0001248061e-01 -8.3207173873e-06
-1.0000024552e-05 5.0000499988e-01 -1.0000036592e-05
9.5000000000e+00 2.3782187331e-10 -1.5000001013e-05
8.5000000000e+00 7.0194827728e-10 -1.5000000999e-05
7.5000000000e+00 2.2111334985e-10 -1.5000001028e-05
6.5000000000e+00 1.9450130395e-10 -1.5000001014e-05
5.5000000000e+00 2.2801072141e-10 -1.5000001013e-05
4.5000000000e+00 1.8164203475e-10 -1.5000001029e-05
3.5000000000e+00 1.6068102404e-10 -1.5000001014e-05
2.5000000000e+00 1.9984747190e-10 -1.5000001014e-05
1.7625000477e+00 2.5000000032e-01 -1.5000001012e-05
5.5875000954e+00 2.5000000038e-01 -1.5000001010e-05
7.5000000000e+00 2.5000000029e-01 -1.5000001027e-05
9.4125003815e+00 2.5000000036e-01 -1.5000001011e-05
1.1324999809e+01 2.5000000007e-01 -1.5000001015e-05
1.3237500191e+01 2.5000000001e-01 -1.5000001015e-05

CELLS 252 1008
3 0 1 2
3 3 1 0
3 0 4 3
3 1 3 5
3 2 6 7
3 2 7 0
3 8 4 0
3 8 0 7
3 4 8 9
3 4 9 3
3 10 5 3
3 10 3 9
3 11 12 13
3 14 12 11
3 11 15 14
3 12 14 16
3 13 17 18
3 13 18 11
3 19 15 11
3 19 11 18
3 15 19 20
3 15 20 14
3 21 16 14
3 21 14 20
3 22 23 24
3 25 24 26
3 25 13 22
3 24 25 22
3 23 27 28
3 23 28 24
3 29 26 24
3 29 24 28
3 29 30 25
3 29 25 26
3 13 25 30
3 13 30 17
3 31 32 33
3 34 32 31
3 31 35 34
3 32 34 23
3 33 36 37
3 33 37 31
3 38 35 31
3 38 31 37
3 35 38 39
3 35 39 34
3 27 23 34
3 27 34 39
3 40 41 42
3 43 41 40
3 40 44 43
3 41 43 33
3 45 46 40
3 45 40 42
3 44 40 46
3 44 46 47
3 44 47 48
3 44 48 43
3 36 33 43
3 36 43 48
3 49 50 51
3 52 50 49
3 49 53 52
3 50 52 42
3 51 54 55
3 51 55 49
3 56 53 49
3 56 49 55
3 53 56 57
3 53 57 52
3 45 42 52
3 45 52 57
3 58 59 60
3 61 59 58
3 58 62 61
3 59 61 51
3 60 63 64
3 60 64 58
3 65 62 58
3 65 58 64
3 62 65 66
3 62 66 61
3 54 51 61
3 54 61 66
3 67 68 69
3 5 69 70
3 68 60 70
3 69 68 70
3 5 10 71
3 5 71 69
3 72 67 69
3 72 69 71
3 72 73 68
3 72 68 67
3 60 68 73
3 60 73 63
3 74 75 76
3 77 74 78
3 76 78 74
3 74 77 2
3 74 79 75
3 80 81 79
3 80 79 74
3 82 80 83
3 82 83 84
3 80 41 33
3 80 33 83
3 81 80 82
3 74 70 60
3 74 60 80
3 74 2 1
3 74 5 70
3 5 74 1
3 80 59 51
3 80 50 42
3 80 42 41
3 50 80 51
3 59 80 60
3 85 83 86
3 85 86 87
3 87 86 88
3 87 88 89
3 83 23 22
3 83 22 86
3 84 83 85
3 90 91 92
3 88 90 92
3 93 91 90
3 94 93 90
3 88 95 96
3 88 96 90
3 89 88 92
3 86 16 95
3 86 95 88
3 83 33 32
3 86 22 13
3 23 83 32
3 86 12 16
3 90 96 97
3 90 97 94
3 12 86 13
3 78 98 99
3 78 99 77
3 6 2 77
3 6 77 99
3 100 95 16
3 100 16 21
3 95 100 101
3 95 101 96
3 102 94 97
3 102 97 103
3 103 97 96
3 103 96 101
3 104 91 93
3 104 93 105
3 106 92 91
3 106 91 104
3 107 87 89
3 107 89 108
3 107 109 85
3 107 85 87
3 108 89 92
3 108 92 106
3 84 85 109
3 84 109 110
3 110 111 82
3 110 82 84
3 112 81 82
3 112 82 111
3 113 114 75
3 113 75 79
3 114 115 76
3 114 76 75
3 113 79 81
3 113 81 112
3 18 17 116
3 20 18 116
3 18 20 19
3 116 21 20
3 117 28 27
3 30 29 28
3 30 117 17
3 28 117 30
3 37 36 118
3 39 37 118
3 37 39 38
3 118 27 39
3 46 45 119
3 48 46 119
3 46 48 47
3 119 36 48
3 55 54 120
3 57 55 120
3 55 57 56
3 120 45 57
3 64 63 121
3 66 64 121
3 64 66 65
3 121 54 66
3 72 71 73
3 10 122 71
3 73 122 63
3 71 122 73
3 7 6 123
3 9 7 123
3 7 9 8
3 123 10 9
3 124 115 114
3 99 98 124
3 115 124 98
3 124 6 99
3 124 114 113
3 125 124 113
3 125 113 112
3 111 110 126
3 111 126 125
3 125 126 36
3 125 36 119
3 112 111 125
3 124 125 63
3 124 63 122
3 124 123 6
3 124 122 10
3 10 123 124
3 125 54 121
3 125 45 120
3 125 119 45
3 120 54 125
3 121 63 125
3 109 107 127
3 109 127 126
3 107 108 128
3 107 128 127
3 126 127 117
3 126 117 27
3 110 109 126
3 129 106 104
3 128 106 129
3 105 129 104
3 102 129 105
3 128 129 101
3 128 101 100
3 108 106 128
3 127 128 100
3 127 100 21
3 126 118 36
3 127 17 117
3 27 118 126
3 127 21 116
3 129 103 101
3 129 102 103
3 116 17 127

CELL_TYPES 252
5
5
5
5
5
5
5
5
5
5
5
5
5
5
5
5
5
5
5
5
5
5
5
5
5
5
5
5
5
5
5
5
5
5
5
5
5
5
5
5
5
5
5
5
5
5
5
5
5
5
5
5
5
5
5
5
5
5
5
5
5
5
5
5
5
5
5
5
5
5
5
5
5
5
5
5
5
5
5
5
5
5
5
5
5
5
5
5
5
5
5
5
5
5
5
5
5
5
5
5
5
5
5
5
5
5
5
5
5
5
5
5
5
5
5
5
5
5
5
5
5
5
5
5
5
5
5
5
5
5
5
5
5
5
5
5
5
5
5
5
5
5
5
5
5
5
5
5
5
5
5
5
5
5
5
5
5
5
5
5
5
5
5
5
5
5
5
5
5
5
5
5
5
5
5
5
5
5
5
5
5
5
5
5
5
5
5
5
5
5
5
5
5
5
5
5
5
5
5
5
5
5
5
5
5
5
5
5
5
5
5
5
5
5
5
5
5
5
5
5
5
5
5
5
5
5
5
5
5
5
5
5
5
5
5
5
5
5
5
5
5
5
5
5
5
5
5
5
5
5
5
5

POINT_DATA 130
VECTORS force double
-6.1142347846e-01 -6.0935284838e-01 8.6254388809e-01
-2.2120010378e-04 4.0113162463e-05 3.5234214664e+00
-9.4006194535e-01 -1.6052648312e+00 1.9922915233e+00
7.5028106072e-01 -7.5018435549e-01 1.0605474174e+00
2.4101224847e-01 -7.2313611530e-01 3.4050143416e-01
9.4272551341e-02 2.8089357882e-01 -5.3056212384e-01
-2.6389088353e-01 -1.0116761799e+00 -1.1226274442e+00
-1.9003998036e-01 -1.9032982824e-01 -2.6719809436e-01
-3.8578208244e-01 -1.1567782109e+00 -5.4538969550e-01
2.9183350310e-01 -2.9178383630e-01 -4.1132659999e-01
9.3396773175e-02 -2.7889376590e-01 -5.2259145582e-01
-1.8239232084e-01 -1.8242172889e-01 2.5792461419e-01
2.5874071968e-04 3.5696479919e-05 6.4519526933e-01
5.1167528071e-04 -2.0389367773e-01 2.8863471446e-01
1.4251934034e-01 -1.4246069211e-01 2.0147612537e-01
9.2313938666e-02 -2.7692931277e-01 1.3054233184e-01
5.4678192381e-02 -2.0793386451e-01 2.3051196206e-01
6.2241026125e-04 -1.5169313338e-01 -4.2955638400e-01
-1.7176397066e-01 -1.7179256520e-01 -2.4293554674e-01
-9.2938235122e-02 -2.7882659953e-01 -1.3143098408e-01
1.3146392482e-01 -1.3139780622e-01 -1.8582332614e-01
1.1538272156e-01 -1.9615229156e-01 -2.4379314269e-01
2.2813356695e-04 1.7776411445e-05 -6.4551381120e-02
3.8893994871e-03 9.4702154069e-03 -1.8317273385e-02
-1.8192965650e-01 -1.8196375517e-01 2.5738219917e-01
2.1278268843e-01 -2.1268256933e-01 3.0080937610e-01
6.0918835452e-06 -3.0997867931e-01 2.1919330723e-01
6.5649732796e-02 -1.9397320020e-01 -3.6575423539e-01
-1.8412064635e-01 -1.8415962787e-01 -2.6045037557e-01
3.8637572556e-06 -3.5637452206e-01 -1.2599770833e-01
1.8940208709e-01 -1.8928019881e-01 -2.6757073342e-01
-2.1050421063e-01 -2.1062298842e-01 2.9780444479e-01
4.1090928912e-04 6.9618718616e-06 8.9518534998e-01
-7.9276005708e-02 -2.4005139356e-01 5.6589481353e-01
1.3160788130e-01 -1.3149629997e-01 1.8621773598e-01
1.2016927576e-01 -3.6046560669e-01 1.6991905776e-01
-1.9237368348e-02 6.0603275353e-02 1.4094454991e-01
-2.4175852987e-01 -2.4184244654e-01 -3.4194241440e-01
-1.2855845481e-01 -3.8569450971e-01 -1.8180310547e-01
2.1293947633e-01 -2.1286209898e-01 -3.0095910938e-01
-2.5121450720e-01 -2.5133657774e-01 3.5523626733e-01
3.9377329464e-04 8.6895836535e-05 6.2589460584e-01
1.0447614633e-03 -2.1159444412e-01 5.9960638426e-01
2.5384626384e-01 -2.5371930854e-01 3.5903810440e-01
8.4800683552e-06 -5.1232114495e-01 1.8112930883e-01
1.2640971115e-03 -5.1737868448e-01 -7.3232981447e-01
-2.7683892982e-01 -2.7700876486e-01 -3.9137650182e-01
6.8219919518e-06 -3.2316310085e-01 -2.2853510389e-01
2.3700162878e-01 -2.3688131795e-01 -3.3577285367e-01
-3.8694281448e-01 -3.8714249818e-01 5.4715206927e-01
8.0424538757e-04 -1.6705528264e-04 9.9666042501e-01
-2.5142617571e-01 -7.5888448723e-01 1.4329500171e+00
4.8423485040e-01 -4.8409211480e-01 6.8507773930e-01
1.5956900979e-01 -4.7860442486e-01 2.2563315417e-01
2.9288903571e-01 -8.7330341590e-01 -1.6476734367e+00
-1.8816661951e-01 -1.8824588619e-01 -2.6642330725e-01
-1.6098192066e-01 -4.8296603804e-01 -2.2772657793e-01
5.5864523793e-01 -5.5840537921e-01 -7.8985759775e-01
-5.9171112192e-01 -5.9200192397e-01 8.3717400495e-01
8.3267552233e-04 -1.7910930815e-04 2.6696917417e+00
3.1633123531e-04 2.4437828258e-01 -4.2990436684e-01
8.3049687677e-01 -8.3028287040e-01 1.1741575590e+00
1.6611206176e-01 -4.9833714273e-01 2.3513446033e-01
1.4002694094e-03 -1.5030695183e-01 -5.2572859011e-01
-5.2412114590e-01 -5.2448017668e-01 -7.4162631595e-01
-2.8409867745e-01 -8.5252760571e-01 -4.0193176791e-01
7.4108723079e-01 -7.4071984043e-01 -1.0469064132e+00
2.0062551095e-06 -3.9756478875e-01 2.8143142011e-01
7.5970635119e-01 -7.5923497807e-01 1.0743291128e+00
-1.0144410248e+00 -1.0144098343e+00 1.4334443194e+00
-1.0523184440e-05 4.0295573571e-05 6.1418798430e+00
-7.0492949828e-01 -7.0489232314e-01 -9.9566006358e-01
-3.3360612613e-05 -8.6192038158e-01 -3.0488089283e-01
6.8424487252e-01 -6.8465310278e-01 -9.6666394467e-01
-9.9877695799e-03 -1.0644301911e-03 7.5423594701e+00
-4.1572135905e-04 8.4570101176e-01 5.6196654582e-01
3.3411209835e-05 8.1586464803e-01 8.1579789261e-01
-6.7250049218e-06 -1.2782769574e+00 8.5070882142e-01
4.3272319263e-05 -7.9495314423e-01 7.9485976547e-01
7.8780560839e-05 -2.6842869648e-01 -4.0116824534e-01
6.4129310023e-04 -2.2717374090e-04 2.5162044772e-01
3.7530386500e-04 -1.3531177868e-01 -9.0441022916e-02
5.1604362316e-04 2.8973516472e-01 2.1634772519e-01
6.3809393717e-04 3.7147297550e-05 1.1417923729e+00
3.7794601797e-04 1.9968447658e-01 1.3294705080e-01
3.1764873722e-04 4.1369165810e-01 4.1381523616e-01
4.3017363056e-04 -9.8326992623e-06 4.8554655311e-01
2.3043898404e-04 1.9258560968e-01 2.8889665851e-01
4.3385399775e-04 1.1600000030e-06 7.2268309838e-02
2.3940604858e-04 1.1375288309e-01 7.5796949492e-02
4.9593464111e-04 -7.1835052652e-06 1.3358054672e-02
2.8222258096e-04 -1.8578984929e-02 -1.2390367150e-02
2.2834488757e-04 6.4352023093e-02 6.4342303720e-02
2.9049502034e-04 -2.1934053319e-02 -2.1937519402e-02
2.6463849920e-04 1.5172467360e-02 -3.0473536338e-02
2.5251799447e-04 -7.8935901364e-02 7.8963851339e-02
2.4797865607e-04 -6.0721103523e-02 6.0718615799e-02
2.7877078694e-04 1.8672671429e-02 -1.2452391249e-02
4.5346517537e-05 -3.5922289699e-01 -7.1819299411e-01
-1.0154982373e-05 -1.5864734485e+00 -1.0574891700e+00
2.7211071207e-04 -6.6398755914e-02 -6.6441446323e-02
2.6633418167e-04 -6.3962402903e-02 -6.3972338905e-02
1.9666015839e-04 2.1852787827e-02 2.1795622803e-02
2.7939390412e-04 1.8466823577e-02 1.2318265490e-02
2.8172755581e-04 -1.8634034869e-02 1.2429581430e-02
3.1400113341e-04 -1.1935035888e-02 2.4038219551e-02
2.3547330511e-04 6.8565949564e-02 -6.8549498808e-02
2.1941802201e-04 2.6382296801e-01 -1.9794806650e-01
2.3488289423e-04 1.0843687223e-01 -7.2297427666e-02
3.4220927271e-04 3.6723058646e-01 -3.6741133370e-01
3.6904886623e-04 4.5443349733e-01 -3.0323068186e-01
5.6475466774e-04 -9.3446860534e-02 1.4117737198e-01
6.4826561787e-04 7.5372960004e-01 -5.0177646631e-01
1.5918533886e-04 1.0934986607e+00 -8.2154971994e-01
-1.9383514933e-04 1.0789100549e+00 -7.2063663144e-01
8.2895926005e-05 3.2900958550e-01 -6.5792774893e-01
3.2870700841e-04 6.7082937872e-05 -6.1187920884e-01
2.2413995013e-04 9.0892503031e-05 5.6836411081e-01
4.2257169277e-04 -1.0342320959e-05 -8.4956799221e-01
8.9653446291e-04 -3.3717370715e-04 -9.7922923685e-01
4.8757687615e-04 2.9987114471e-05 -1.1150134709e+00
-6.5470107030e-04 1.3230360089e-03 1.0121856201e+00
-2.9448749066e-03 1.7204325531e-03 2.7659046512e+00
-5.0389216727e-03 4.0603492665e-03 5.2325760576e+00
-8.2300202343e-03 -3.9790464825e-03 -1.4884432862e+01
-2.6751642544e-04 2.2344189324e-04 2.6982143241e+00
6.8003768014e-04 1.3499700290e-04 -1.5455963038e+00
5.9804584293e-04 -4.8745490384e-05 -7.9942296265e-01
5.2237696612e-04 1.5092130077e-06 -1.4084318060e-02
6.1018944506e-04 -1.0325048927e-05 1.6577464443e-02

SCALARS pressure double 1
LOOKUP_TABLE default
1.2222229464e+00
3.5190729437e+00
2.7277696207e+00
1.5003234501e+00
8.3512007654e-01
-6.0577390089e-01
1.5332262270e+00
3.8050804677e-01
1.3374776520e+00
5.8384759270e-01
6.0238666218e-01
3.6479982234e-01
6.4552415092e-01
3.5324163680e-01
2.8500696438e-01
3.1976998946e-01
3.1528215980e-01
4.5537357772e-01
3.4354531313e-01
3.2196488252e-01
2.6293564447e-01
3.3348026054e-01
-6.5711001847e-02
-2.0186857303e-02
3.6386656520e-01
4.2542404524e-01
3.7962897953e-01
4.1900050417e-01
3.6828402694e-01
3.7798083045e-01
3.7865949646e-01
4.2111581686e-01
8.9620838148e-01
6.2020776066e-01
2.6310622856e-01
4.1625081106e-01
-1.5618097694e-01
4.8353886799e-01
4.4535382895e-01
4.2582645753e-01
5.0262492998e-01
6.2560188052e-01
6.3460562569e-01
5.0750495066e-01
5.4340762646e-01
8.9663441410e-01
5.5384278086e-01
3.9583040322e-01
4.7364920285e-01
7.7407920877e-01
1.0028311357e+00
1.6393043257e+00
9.6791343767e-01
5.5269890514e-01
1.8860703242e+00
3.7663659401e-01
5.5769369744e-01
1.1165461919e+00
1.1834276838e+00
2.6848333143e+00
-4.9607255791e-01
1.6599684537e+00
5.7541078325e-01
5.5109215898e-01
1.0480276858e+00
9.8429207956e-01
1.4811903659e+00
4.8659568954e-01
1.5182489738e+00
2.0288135902e+00
6.1624219955e+00
1.4089694061e+00
9.1422849898e-01
1.3689566626e+00
7.5533227919e+00
1.0176821546e+00
1.1538121723e+00
1.5371179164e+00
1.1242257586e+00
-4.8395780688e-01
2.5876023948e-01
-1.6271775845e-01
3.6222788771e-01
1.1439371845e+00
2.3999848015e-01
5.8509343198e-01
4.8689623614e-01
3.4719320896e-01
7.2066079069e-02
1.3671925366e-01
1.3302821032e-02
-2.2328736237e-02
9.1006513384e-02
-3.1245171160e-02
-3.4312148232e-02
1.1163206567e-01
8.5870705541e-02
-2.2443352466e-02
8.0330299671e-01
1.9064861082e+00
9.3904871585e-02
9.0452365271e-02
-3.1285021188e-02
-2.2200780274e-02
-2.2397758306e-02
-2.7084058272e-02
9.6963901858e-02
3.2977599344e-01
1.3031137225e-01
5.1935753061e-01
5.4621875291e-01
-1.6848665608e-01
9.0633555529e-01
1.3671118882e+00
1.2969627132e+00
7.3581267247e-01
6.1074405046e-01
-5.6972788768e-01
8.5140519967e-01
9.8573790196e-01
1.1157578589e+00
-1.0088006324e+00
-2.7549691940e+00
-5.2146959388e+00
1.4907179955e+01
-2.7017446631e+00
1.5466071193e+00
8.0035369180e-01
1.3559229018e-02
-1.6675366254e-02

SCALARS wss double 1
LOOKUP_TABLE default
1.5472832735e-03
2.2881984605e-04
1.5783900732e-03
3.1190702239e-04
3.4686698932e-04
6.6292224573e-04
1.1548620421e-03
1.2616305422e-03
1.9160804009e-04
9.5518527883e-04
1.7743812904e-03
3.1377534293e-05
2.6126032277e-04
5.3770315070e-04
4.8369092888e-05
5.2620215705e-06
3.5240801906e-04
6.4480880080e-04
2.0992477930e-05
6.7310338593e-06
5.8766890073e-05
4.3735852952e-04
2.2879711917e-04
6.9539289199e-04
5.6292337217e-05
7.7138753829e-05
8.0902095211e-06
9.8012247308e-04
3.9133540490e-05
4.4854378947e-06
1.6289874617e-04
8.3180936590e-05
4.1076257190e-04
7.4737454759e-04
1.4774025452e-04
1.5449993544e-05
1.0411171568e-03
6.0743818511e-05
1.1546513692e-05
1.0581336012e-04
1.1884145623e-04
4.0428276415e-04
1.1105567857e-03
1.3340962458e-04
8.4934098097e-06
1.3182551331e-03
2.1207911621e-04
2.1968019554e-05
4.9571332431e-04
1.9837753445e-04
8.2039973430e-04
2.0177544567e-03
2.8325541503e-04
3.6803451537e-05
1.6938362556e-03
1.9382743842e-04
5.3536543731e-05
1.7635167801e-04
2.3206002721e-04
8.4710189040e-04
1.0850404350e-03
1.9583455495e-04
2.0036210432e-04
2.0879979543e-03
2.7962930435e-04
9.0892184852e-05
6.7860923287e-04
2.5495999916e-04
3.9478472236e-04
8.1849909257e-04
9.5553744328e-05
8.6535516168e-04
1.4637584387e-04
9.5064119263e-04
1.0035030483e-02
1.5758178905e-03
5.3339294558e-05
1.2177723795e-03
7.4578647980e-05
8.1441675741e-04
6.8097798499e-04
4.2312920213e-04
9.1762967510e-04
6.3919294597e-04
4.0456324710e-04
3.3072581430e-04
4.2989338119e-04
2.3080825249e-04
4.3384062848e-04
2.4142073161e-04
4.9597691493e-04
2.8225757082e-04
2.2839107349e-04
2.9063137295e-04
2.7099976273e-04
2.5337265691e-04
2.4800406552e-04
2.7884178095e-04
1.1473581575e-04
1.2147813056e-04
2.7390201351e-04
2.6644435681e-04
2.0084180585e-04
2.7946906590e-04
2.8183456922e-04
3.2302305929e-04
2.3574194652e-04
2.2990387368e-04
2.3492000270e-04
3.6710351790e-04
4.3637402915e-04
7.9556643601e-04
8.7439452662e-04
1.1677675690e-03
1.1588974008e-03
9.1584645457e-05
3.3499756720e-04
2.3912629179e-04
4.2217118506e-04
9.5515694674e-04
4.8844661407e-04
1.4649045004e-03
3.3947915270e-03
6.4433198818e-03
9.1261430041e-03
3.5485502435e-04
6.9145035643e-04
5.9939214958e-04
5.2238128851e-04
6.1028915997e-04

